# vtk DataFile Version 3.0
IHLAN example
ASCII
DATASET POLYDATA
POINTS 7 float
0 0 5
5.0 0.0 0
2.5 4.33013 0
-2.5 4.33013 0
-5.0 0.0 0
-2.5 -4.33013 0
2.5 -4.33013 0
LINES 12 36
2 0 1
2 0 2
2 0 3
2 0 4
2 0 5
2 0 6
2 1 2
2 2 3
2 3 4
2 4 5
2 5 6
2 6 1
POLYGONS 7 31
3 0 1 2
3 0 2 3
3 0 3 4
3 0 4 5
3 0 5 6
3 0 1 6
6 1 2 3 4 5 6
CELL_DATA 7
SCALARS cell_scalars int 1
LOOKUP_TABLE default
0
1
2
3
4
5
6
VECTORS cell_vectors float
0 0 1
0 0 1
0 0 1
0 0 1
0 0 1
0 0 1
0 0 1
POINT_DATA 7
SCALARS green float 1
LOOKUP_TABLE green_table
0.0
1.0
2.0
3.0
4.0
5.0
6.0
LOOKUP_TABLE green_table 6
0.0 0.0 0.0 1.0
0.0 0.143 0.0 1.0
0.0 0.286 0.0 1.0
0.0 0.429 0.0 1.0
0.0 0.571 0.0 1.0
0.0 0.714 0.0 1.0
0.0 0.857 0.0 1.0